

            ---------
:ITE011: 11. ITERATION
            ---------

       NUMBER OF ATOMS IN UNITCELL  =   2
       SUBSTANCE: TiC                                                         

       LATTICE                      = F   
:POT  : POTENTIAL OPTION   13
:LAT  : LATTICE CONSTANTS=  8.17874  8.17874  8.17874    1.571    1.571    1.571
:VOL  : UNIT CELL VOLUME =     136.77254
       MODE OF CALCULATION IS       = RELA
       NON-SPINPOLARIZED CALCULATION
:IFFT  : FFT-parameters:   40   40   40 Factor: 2.00
       ATOMNUMBER=  1 TiTi       VCOUL-ZERO =  0.38338E+00
       ATOMNUMBER=  2 C C        VCOUL-ZERO =  0.62015E+00
:FIT001: SIGMA OF V-XC FIT FOR ATOM  1  0.1428182E-01
:FIT001: SIGMA OF V-XC FIT FOR ATOM  1  0.1428182E-01
:FIT002: SIGMA OF V-XC FIT FOR ATOM  2  0.1044800E-02
:FIT002: SIGMA OF V-XC FIT FOR ATOM  2  0.1044800E-02
:DEN  : DENSITY INTEGRALS =            -754.069295   (Ry)
       ELS_POTENTIAL_AT Z=0 and Z=0.5:  -3.00495  -3.00495
       ELS_POTENTIAL_AT Y=0 and Y=0.5:   0.00000   0.00000
:VZERO:v0,v0c,v0x  -4.28351  -3.00495  -1.27856 v5,v5c,v5x  -4.28351  -3.00495  -1.27856
:VZERY:v0,v0c,v0x  -0.87640   0.00000  -0.87640 v5,v5c,v5x  -0.87640   0.00000  -0.87640
:VZERX:v0,v0c,v0x  -0.87640   0.00000  -0.87640 v5,v5c,v5x  -0.87640   0.00000  -0.87640
